<?xml version="1.0" encoding="UTF-8"?>

<!-- generated on 03/07/21 13:23:51 by Eclipse SUMO sumo Version 1.8.0
<configuration xmlns:xsi="http://www.w3.org/2001/XMLSchema-instance" xsi:noNamespaceSchemaLocation="http://sumo.dlr.de/xsd/sumoConfiguration.xsd">

    <input>
        <net-file value="C:\Program%20Files%20(x86)\Eclipse\Sumo\tools\2021-03-07-13-23-46\osm.net.xml"/>
        <route-files value="C:\Program%20Files%20(x86)\Eclipse\Sumo\tools\2021-03-07-13-23-46\trips.trips.xml"/>
        <additional-files value="C:\Program%20Files%20(x86)\Eclipse\Sumo\tools\2021-03-07-13-23-46\osm_stops.add.xml"/>
    </input>

    <output>
        <vehroute-output value="C:\Program%20Files%20(x86)\Eclipse\Sumo\tools\2021-03-07-13-23-46\vehroutes.xml"/>
        <stop-output value="C:\Program%20Files%20(x86)\Eclipse\Sumo\tools\2021-03-07-13-23-46\stopinfos.xml"/>
    </output>

    <time>
        <begin value="0"/>
    </time>

    <processing>
        <ignore-route-errors value="true"/>
    </processing>

    <routing>
        <device.rerouting.adaptation-interval value="0"/>
    </routing>

    <report>
        <error-log value="C:\Program%20Files%20(x86)\Eclipse\Sumo\tools\2021-03-07-13-23-46\trips.trips.xml.errorlog"/>
        <no-step-log value="true"/>
    </report>

</configuration>
-->

<routes xmlns:xsi="http://www.w3.org/2001/XMLSchema-instance" xsi:noNamespaceSchemaLocation="http://sumo.dlr.de/xsd/routes_file.xsd">
    <vehicle id="6_bus_66a:0" type="pt_bus" depart="58.00" departLane="1" arrival="101.00">
        <route edges="4401781#3"/>
        <stop busStop="255016985" duration="30.00"/>
    </vehicle>

    <vehicle id="4_bus_25A:0" type="pt_bus" depart="52.00" departLane="1" arrival="378.00">
        <route edges="556390402#0 556390402#2 125863788 292236197 13907388 3789575#0 3789575#1 529166754 4401781#0 4401781#1 4401781#2 4401781#3 4401781#4 4408221 38587823 37721990 13907386"/>
        <stop busStop="255016985" duration="30.00"/>
    </vehicle>

    <vehicle id="7_bus_145:0" type="pt_bus" depart="93.00" departLane="1" arrival="395.00">
        <route edges="317127417 80433528 3789578 38587899#0 38587899#1 3789572 361409608#0 361409608#1 361409608#2 361409608#3 4408238#0 4408238#1 4408238#2 12854626#0 12854626#1 12854626#2 12854626#3 3791905#0 3791905#1 3791905#2 3791905#3"/>
        <stop busStop="667281715" duration="30.00"/>
        <stop busStop="2929146637" duration="30.00"/>
        <stop busStop="650220218@18359" duration="30.00"/>
    </vehicle>

    <vehicle id="13_bus_747:0" type="pt_bus" depart="201.00" departLane="1" arrival="403.00">
        <route edges="5976030 242586599 4401781#0 4401781#1 4401781#2 4401781#3 4401781#4 4408221 38587823 37721990 13907386"/>
        <stop busStop="255016985" duration="30.00"/>
    </vehicle>

    <vehicle id="15_tram_Luas_Green_Line:0" type="pt_tram" depart="227.00" departLane="0" arrival="427.00">
        <route edges="560223962#0 560223962#3 560223962#4 548477025#0 548477025#1 548477025#2 548477025#3 548477025#4 548477025#5"/>
        <stop busStop="5298637240" duration="30.00"/>
        <stop busStop="8398652317" duration="30.00"/>
    </vehicle>

    <vehicle id="5_bus_25:0" type="pt_bus" depart="58.00" departLane="1" arrival="430.00">
        <route edges="556390402#0 556390402#2 125863788 292236197 13907388 3789575#0 3789575#1 529166754 4401781#0 4401781#1 4401781#2 4401781#3 4401781#4 4408221 38587823 37721990 13907386"/>
        <stop busStop="650220218" duration="30.00"/>
    </vehicle>

    <vehicle id="14_bus_67:0" type="pt_bus" depart="204.00" departLane="1" arrival="434.00">
        <route edges="317127417 80433528 3789578 38587899#0 38587899#1 3789572 361409608#0 361409608#1 361409608#2 361409608#3 4408238#0 4408238#1 4408238#2 12854626#0 12854626#1 12854626#2 12854626#3 3791905#0 3791905#1 3791905#2 3791905#3"/>
        <stop busStop="255016985@52346" duration="30.00"/>
    </vehicle>

    <vehicle id="1_bus_39:1" type="pt_bus" depart="15.00" departLane="1" arrival="436.00">
        <route edges="556390402#0 556390402#2 125863788 292236197 13907388 3789575#0 3789575#1 529166754 4401781#0 4401781#1 4401781#2 4401781#3 4401781#4 4408221 38587823 4401787 14331345 14331347 3708465#0 3708465#3 3708465#4 3708465#5 52822147#0 52822147#1 52822147#2 125814598 125814738#1 125814738#2 563891693 3708463#0 3708463#1 3708463#2"/>
        <stop busStop="664499926" duration="30.00"/>
        <stop busStop="598490680" duration="30.00"/>
        <stop busStop="255016985" duration="30.00"/>
        <stop busStop="633552565" duration="30.00"/>
        <stop busStop="878117184" duration="30.00"/>
    </vehicle>

    <vehicle id="20_bus_70:0" type="pt_bus" depart="331.00" departLane="1" arrival="439.00">
        <route edges="529166754 4401781#0 4401781#1 4401781#2 4401781#3 4401781#4"/>
        <stop busStop="255016985" duration="30.00"/>
    </vehicle>

    <vehicle id="16_tram_Luas_Green_Line:1" type="pt_tram" depart="253.00" departLane="0" arrival="468.00">
        <route edges="549411867#0 549411867#1 549411867#2 549411867#3 397464858#0 397464858#1 548477024#0 548477024#2"/>
        <stop busStop="3452492564" duration="30.00"/>
        <stop busStop="3452492565" duration="30.00"/>
    </vehicle>

    <vehicle id="22_bus_25d:0" type="pt_bus" depart="362.00" departLane="1" arrival="477.00">
        <route edges="4401781#0 4401781#1 4401781#2 4401781#3 4401781#4"/>
        <stop busStop="255016985" duration="30.00"/>
    </vehicle>

    <vehicle id="10_tram_Luas_Red_Line:1" type="pt_tram" depart="132.00" departLane="0" arrival="484.00">
        <route edges="317127413#0 317127413#1 317127413#2 317127413#3 317127413#4 317127413#5 317127413#6 317127413#7 338055464#1 338055464#2 338055464#3 338055464#4 338055464#5 338055464#6 338055464#7 338055464#8 338055464#9 338055464#10 338055464#11 338055464#12 338055464#13 338055464#14 338055464#15 338055464#16 338055464#17 338055464#18 338055464#19 338055464#20 338055464#21"/>
        <stop busStop="1396867040" duration="30.00"/>
        <stop busStop="3709896536" duration="30.00"/>
        <stop busStop="3451159931" duration="30.00"/>
        <stop busStop="3451120785" duration="30.00"/>
    </vehicle>

    <vehicle id="0_bus_39:0" type="pt_bus" depart="3.00" departLane="1" arrival="489.00">
        <route edges="-3708463#2 -3708463#1 -3708463#0 -563891693 -125814738#2 -125814738#1 -125814598 3789247#0 3789247#1 317127411 3708838#2 3708838#3 3708838#4 3708838#5 4908199#0 4908199#1 4908199#2 -3708465#5 -3708465#4 -3708465#3 -3708465#0 38587899#0 38587899#1 3789572 361409608#0 361409608#1 361409608#2 361409608#3 4408238#0 4408238#1 4408238#2 12854626#0 12854626#1 12854626#2 12854626#3 3791905#0 3791905#1 3791905#2 3791905#3"/>
        <stop busStop="-842478107" duration="30.00"/>
        <stop busStop="-842478106" duration="30.00"/>
        <stop busStop="-842478111" duration="30.00"/>
        <stop busStop="842484735" duration="30.00"/>
    </vehicle>

    <vehicle id="9_tram_Luas_Red_Line:0" type="pt_tram" depart="131.00" departLane="0" arrival="496.00">
        <route edges="352511043#0 352511043#1 352511043#2 352511043#3 352511043#4 352511043#5 352511043#6 352511043#7 352511043#8 352511043#9 352511043#10 352511043#11 352511043#12 352511043#13 352511043#14 352511043#15 352511043#16 352511043#17 352511043#18 352511043#19 352511043#20 352511043#21 352511043#22 352511043#23 352511043#24 352511043#25 352511043#26 352511043#27 352511043#28"/>
        <stop busStop="3451318404" duration="30.00"/>
        <stop busStop="3451318438" duration="30.00"/>
        <stop busStop="4683372272" duration="30.00"/>
        <stop busStop="4683372273" duration="30.00"/>
    </vehicle>

    <vehicle id="23_bus_25x:0" type="pt_bus" depart="383.00" departLane="1" arrival="516.00">
        <route edges="4401781#0 4401781#1 4401781#2 4401781#3 4401781#4"/>
        <stop busStop="255016985" duration="30.00"/>
    </vehicle>

    <vehicle id="12_tram_Luas_Red_Line:3" type="pt_tram" depart="165.00" departLane="0" arrival="538.00">
        <route edges="352511043#0 352511043#1 352511043#2 352511043#3 352511043#4 352511043#5 352511043#6 352511043#7 352511043#8 352511043#9 352511043#10 352511043#11 352511043#12 352511043#13 352511043#14 352511043#15 352511043#16 352511043#17 352511043#18 352511043#19 352511043#20 352511043#21 352511043#22 352511043#23 352511043#24 352511043#25 352511043#26 352511043#27 352511043#28"/>
        <stop busStop="3451318404" duration="30.00"/>
        <stop busStop="3451318438" duration="30.00"/>
        <stop busStop="4683372272" duration="30.00"/>
        <stop busStop="4683372273" duration="30.00"/>
    </vehicle>

    <vehicle id="11_tram_Luas_Red_Line:2" type="pt_tram" depart="139.00" departLane="0" arrival="540.00">
        <route edges="317127413#0 317127413#1 317127413#2 317127413#3 317127413#4 317127413#5 317127413#6 317127413#7 338055464#1 338055464#2 338055464#3 338055464#4 338055464#5 338055464#6 338055464#7 338055464#8 338055464#9 338055464#10 338055464#11 338055464#12 338055464#13 338055464#14 338055464#15 338055464#16 338055464#17 338055464#18 338055464#19 338055464#20 338055464#21"/>
        <stop busStop="1396867040" duration="30.00"/>
        <stop busStop="3709896536" duration="30.00"/>
        <stop busStop="3451159931" duration="30.00"/>
        <stop busStop="3451120785" duration="30.00"/>
    </vehicle>

    <vehicle id="25_bus_51d:0" type="pt_bus" depart="406.00" departLane="1" arrival="554.00">
        <route edges="529166754 4401781#0 4401781#1 4401781#2 4401781#3 4401781#4"/>
        <stop busStop="255016985" duration="30.00"/>
    </vehicle>

    <vehicle id="8_bus_39a:1" type="pt_bus" depart="119.00" departLane="1" arrival="557.00">
        <route edges="-3708463#2 -3708463#1 -3708463#0 -563891693 -125814738#2 -125814738#1 -125814598 3789247#0 3789247#1 317127411 3708838#2 3708838#3 3708838#4 3708838#5 4908199#0 4908199#1 4908199#2 -3708465#5 -3708465#4 -3708465#3 -3708465#0 38587899#0 38587899#1 3789572 361409608#0 361409608#1 361409608#2 361409608#3 4408238#0 4408238#1 4408238#2 12854626#0 12854626#1 12854626#2 12854626#3 3791905#0 3791905#1 3791905#2 3791905#3"/>
        <stop busStop="-842478107" duration="30.00"/>
        <stop busStop="-842478106" duration="30.00"/>
        <stop busStop="-842478111" duration="30.00"/>
        <stop busStop="842484735" duration="30.00"/>
    </vehicle>

    <vehicle id="2_bus_37:0" type="pt_bus" depart="21.00" departLane="1" arrival="577.00">
        <route edges="556390402#0 556390402#2 125863788 292236197 13907388 3789575#0 3789575#1 529166754 4401781#0 4401781#1 4401781#2 4401781#3 4401781#4 4408221 38587823 4401787 14331345 14331347 3708465#0 3708465#3 3708465#4 3708465#5 52822147#0 52822147#1 52822147#2 125814598 125814738#1 125814738#2 563891693 3708463#0 3708463#1 3708463#2"/>
        <stop busStop="664499926" duration="30.00"/>
        <stop busStop="598490680" duration="30.00"/>
        <stop busStop="255016985" duration="30.00"/>
        <stop busStop="633552565" duration="30.00"/>
        <stop busStop="878117184" duration="30.00"/>
    </vehicle>

    <vehicle id="26_bus_66:0" type="pt_bus" depart="418.00" departLane="1" arrival="590.00">
        <route edges="529166754 4401781#0 4401781#1 4401781#2 4401781#3 4401781#4"/>
        <stop busStop="255016985" duration="30.00"/>
    </vehicle>

    <vehicle id="3_bus_39a:0" type="pt_bus" depart="27.00" departLane="1" arrival="617.00">
        <route edges="556390402#0 556390402#2 125863788 292236197 13907388 3789575#0 3789575#1 529166754 4401781#0 4401781#1 4401781#2 4401781#3 4401781#4 4408221 38587823 4401787 14331345 14331347 3708465#0 3708465#3 3708465#4 3708465#5 52822147#0 52822147#1 52822147#2 125814598 125814738#1 125814738#2 563891693 3708463#0 3708463#1 3708463#2"/>
        <stop busStop="664499926" duration="30.00"/>
        <stop busStop="598490680" duration="30.00"/>
        <stop busStop="255016985" duration="30.00"/>
        <stop busStop="633552565" duration="30.00"/>
        <stop busStop="878117184" duration="30.00"/>
    </vehicle>

    <vehicle id="27_bus_66b:0" type="pt_bus" depart="437.00" departLane="1" arrival="628.00">
        <route edges="529166754 4401781#0 4401781#1 4401781#2 4401781#3 4401781#4"/>
        <stop busStop="255016985" duration="30.00"/>
    </vehicle>

    <vehicle id="28_bus_66x:0" type="pt_bus" depart="443.00" departLane="1" arrival="667.00">
        <route edges="529166754 4401781#0 4401781#1 4401781#2 4401781#3 4401781#4"/>
        <stop busStop="255016985" duration="30.00"/>
    </vehicle>

    <vehicle id="32_bus_25A:1" type="pt_bus" depart="508.00" departLane="1" arrival="741.00">
        <route edges="317127417 80433528 3789578 38587899#0 38587899#1 3789572 361409608#0 361409608#1 361409608#2 361409608#3 4408238#0 4408238#1 4408238#2 12854626#0 12854626#1 12854626#2 12854626#3 3791905#0 3791905#1 3791905#2 3791905#3"/>
        <stop busStop="255016985@52346" duration="30.00"/>
    </vehicle>

    <vehicle id="29_bus_67x:0" type="pt_bus" depart="483.00" departLane="1" arrival="745.00">
        <route edges="529166754 4401781#0 4401781#1 4401781#2 4401781#3 4401781#4"/>
        <stop busStop="255016985" duration="30.00"/>
    </vehicle>

    <vehicle id="21_bus_25B:0" type="pt_bus" depart="353.00" departLane="1" arrival="793.00">
        <route edges="556390402#0 556390402#2 125863788 292236197 13907388 3789575#0 3789575#1 529166754 4401781#0 4401781#1 4401781#2 4401781#3 4401781#4 4408221 38587823 37721990 13907386"/>
        <stop busStop="255016985" duration="30.00"/>
    </vehicle>

    <vehicle id="33_bus_25B:1" type="pt_bus" depart="535.00" departLane="1" arrival="794.00">
        <route edges="317127417 80433528 3789578 38587899#0 38587899#1 3789572 361409608#0 361409608#1 361409608#2 361409608#3 4408238#0 4408238#1 4408238#2 12854626#0 12854626#1 12854626#2 12854626#3 3791905#0 3791905#1 3791905#2 3791905#3"/>
        <stop busStop="255016985@52346" duration="30.00"/>
    </vehicle>

    <vehicle id="34_bus_79:1" type="pt_bus" depart="574.00" departLane="1" arrival="805.00">
        <route edges="80433528 3789578 38587899#0 38587899#1 3789572 361409608#0 361409608#1 361409608#2 361409608#3 4408238#0 4408238#1 4408238#2 12854626#0 12854626#1 12854626#2 12854626#3 4396056 31028273"/>
        <stop busStop="667281715" duration="30.00"/>
        <stop busStop="842484735" duration="30.00"/>
    </vehicle>

    <vehicle id="19_bus_79A:0" type="pt_bus" depart="326.00" departLane="1" arrival="814.00">
        <route edges="3789575#0 3789575#1 3787679 384330741 4908185 3789252#1 -3789252#1 4408238#0 4408238#1 4408238#2 12854626#0 12854626#1 12854626#2 12854626#3 4396056 31028273 31028274 125863788 292236197 13907388 3789575#0 3789575#1 529166754 4401781#0 4401781#1 4401781#2 4401781#3"/>
        <stop busStop="598490680" duration="30.00"/>
        <stop busStop="664499926" duration="30.00"/>
        <stop busStop="255016985" duration="30.00"/>
    </vehicle>

    <vehicle id="35_bus_79A:1" type="pt_bus" depart="583.00" departLane="1" arrival="857.00">
        <route edges="317127417 80433528 3789578 38587899#0 38587899#1 3789572 361409608#0 361409608#1 361409608#2 361409608#3 4408238#0 4408238#1 4408238#2 12854626#0 12854626#1 12854626#2 12854626#3 4396056 31028273"/>
        <stop busStop="667281715" duration="30.00"/>
        <stop busStop="842484735" duration="30.00"/>
    </vehicle>

    <vehicle id="17_bus_145:1" type="pt_bus" depart="303.00" departLane="1" arrival="871.00">
        <route edges="556390402#0 556390402#2 125863788 292236197 13907388 3789575#0 3789575#1 529166754 4401781#0 4401781#1 4401781#2 4401781#3 4401781#4 4408221 38587823 37721990 13907386"/>
        <stop busStop="664499926" duration="30.00"/>
        <stop busStop="598490680" duration="30.00"/>
        <stop busStop="255016985" duration="30.00"/>
    </vehicle>

    <vehicle id="31_bus_69x:0" type="pt_bus" depart="485.00" departLane="1" arrival="952.00">
        <route edges="556390402#0 556390402#2 125863788 292236197 13907388 3789575#0 3789575#1 529166754 4401781#0 4401781#1 4401781#2 4401781#3 4401781#4 4408221 38587823 37721990 13907386"/>
        <stop busStop="664499926" duration="30.00"/>
        <stop busStop="598490680" duration="30.00"/>
        <stop busStop="255016985" duration="30.00"/>
    </vehicle>

    <vehicle id="18_bus_79:0" type="pt_bus" depart="321.00" departLane="1" arrival="1004.00">
        <route edges="556390402#0 556390402#2 125863788 292236197 13907388 3789575#0 3789575#1 3787679 384330741 4908185 3789252#1 -3789252#1 4408238#0 4408238#1 4408238#2 12854626#0 12854626#1 12854626#2 12854626#3 4396056 31028273 31028274 125863788 292236197 13907388 3789575#0 3789575#1 529166754 4401781#0 4401781#1 4401781#2 4401781#3 4401781#4 4408221 38587823 37721990 13907386"/>
        <stop busStop="598490680" duration="30.00"/>
        <stop busStop="664499926" duration="30.00"/>
        <stop busStop="255016985" duration="30.00"/>
    </vehicle>

    <vehicle id="30_bus_69:0" type="pt_bus" depart="887.00" departLane="1" arrival="1357.00">
        <route edges="4401781#3 4401781#4 4408221 38587823 4401787 14331345 14331347 3708465#0 -3708465#0 38587899#0 38587899#1 3789572 361409608#0 361409608#1 361409608#2 361409608#3 4408238#0 4408238#1 4408238#2 12854626#0 12854626#1 12854626#2 12854626#3 4396056 31028273 31028274 125863788 292236197 13907388 3789575#0 3789575#1 3787679 384330741 4908185 3789252#1 -3789252#1 4408238#0 4408238#1 4408238#2 12854626#0 12854626#1 12854626#2 12854626#3 4396056 31028273 31028274 125863788 292236197"/>
        <stop busStop="255016985" duration="30.00"/>
        <stop busStop="598490680" duration="30.00"/>
        <stop busStop="664499926" duration="30.00"/>
    </vehicle>

    <vehicle id="24_bus_26:0" type="pt_bus" depart="389.00" departLane="1" arrival="1368.00">
        <route edges="556390402#0 556390402#2 125863788 292236197 13907388 3789575#0 3789575#1 529166754 4401781#0 4401781#1 4401781#2 4401781#3 4401781#4 4408221 38587823 37721990 13907386 4401781#3 4401781#4 4408221 38587823 37721990 13907386"/>
        <stop busStop="650220218" duration="30.00"/>
        <stop busStop="667281715@7176757" duration="30.00"/>
        <stop busStop="255016985" duration="30.00"/>
    </vehicle>

</routes>
