<?xml version="1.0" encoding="UTF-8"?>

<!-- generated on 04/25/21 16:55:27 by Eclipse SUMO GUI Version 1.8.0
<configuration xmlns:xsi="http://www.w3.org/2001/XMLSchema-instance" xsi:noNamespaceSchemaLocation="http://sumo.dlr.de/xsd/sumoConfiguration.xsd">

    <input>
        <net-file value="osm.net.xml"/>
        <route-files value="osm_pt.rou.xml,osm.passenger.trips.xml,osm.truck.trips.xml,osm.bus.trips.xml,osm.motorcycle.trips.xml,osm.bicycle.trips.xml,osm.pedestrian.rou.xml,osm.tram.trips.xml"/>
        <additional-files value="osm.poly.xml,osm_stops.add.xml"/>
    </input>

    <output>
        <tripinfo-output value="Results/HDV-85_CAV2-9_CAV4-6/tripinfo.xml"/>
        <statistic-output value="Results/HDV-85_CAV2-9_CAV4-6/stats.xml"/>
    </output>

    <time>
        <begin value="0"/>
        <step-length value="0.5"/>
    </time>

    <processing>
        <ignore-route-errors value="true"/>
    </processing>

    <routing>
        <device.rerouting.adaptation-steps value="18"/>
        <device.rerouting.adaptation-interval value="10"/>
    </routing>

    <report>
        <verbose value="true"/>
        <duration-log.statistics value="true"/>
        <no-step-log value="true"/>
    </report>

    <gui_only>
        <gui-settings-file value="osm.view.xml"/>
        <quit-on-end value="true"/>
        <start value="true"/>
        <tracker-interval value="0.5"/>
    </gui_only>

</configuration>
-->

<tripinfos xmlns:xsi="http://www.w3.org/2001/XMLSchema-instance" xsi:noNamespaceSchemaLocation="http://sumo.dlr.de/xsd/tripinfo_file.xsd">
    <tripinfo id="moto1" depart="13.50" departLane="-64270137#3_1" departPos="2.30" departSpeed="0.00" departDelay="0.37" arrival="34.50" arrivalLane="-52321640#0_1" arrivalPos="16.39" arrivalSpeed="7.29" duration="21.00" routeLength="135.25" waitingTime="0.00" waitingCount="0" stopTime="0.00" timeLoss="2.55" rerouteNo="1" devices="tripinfo_moto1 routing_moto1 ssm_moto1" vType="moto_motorcycle" speedFactor="0.89" vaporized=""/>
    <tripinfo id="moto0" depart="0.00" departLane="3789250#1_1" departPos="2.30" departSpeed="0.00" departDelay="0.00" arrival="63.00" arrivalLane="-135582840#1_1" arrivalPos="19.54" arrivalSpeed="8.02" duration="63.00" routeLength="553.67" waitingTime="0.00" waitingCount="0" stopTime="0.00" timeLoss="7.47" rerouteNo="1" devices="tripinfo_moto0 routing_moto0 ssm_moto0" vType="moto_motorcycle" speedFactor="1.05" vaporized=""/>
    <personinfo id="ped13" depart="50.38" type="ped_pedestrian">
        <walk depart="50.50" departPos="0.00" arrival="85.00" arrivalPos="13.57" duration="34.50" routeLength="42.62" timeLoss="4.27" maxSpeed="1.41"/>
    </personinfo>
    <tripinfo id="veh3" depart="13.50" departLane="3789368#5_1" departPos="5.10" departSpeed="0.00" departDelay="0.37" arrival="96.00" arrivalLane="361409608#1_1" arrivalPos="49.47" arrivalSpeed="8.20" duration="82.50" routeLength="705.71" waitingTime="0.00" waitingCount="0" stopTime="0.00" timeLoss="15.44" rerouteNo="1" devices="tripinfo_veh3 routing_veh3 ssm_veh3" vType="HDC" speedFactor="1.12" vaporized=""/>
    <tripinfo id="veh4" depart="18.00" departLane="-52321641#5_2" departPos="5.10" departSpeed="0.00" departDelay="0.49" arrival="98.50" arrivalLane="372245387#0_1" arrivalPos="13.06" arrivalSpeed="6.90" duration="80.50" routeLength="591.27" waitingTime="0.00" waitingCount="0" stopTime="0.00" timeLoss="6.89" rerouteNo="1" devices="tripinfo_veh4 routing_veh4 ssm_veh4" vType="HDC" speedFactor="0.90" vaporized=""/>
    <tripinfo id="pt_bus_66a:0.0" depart="58.00" departLane="4401781#3_1" departPos="12.10" departSpeed="0.00" departDelay="0.00" arrival="101.50" arrivalLane="4401781#3_1" arrivalPos="43.71" arrivalSpeed="5.40" duration="43.50" routeLength="31.61" waitingTime="0.00" waitingCount="0" stopTime="31.50" timeLoss="9.66" rerouteNo="0" devices="tripinfo_pt_bus_66a:0.0" vType="pt_bus" speedFactor="1.00" vaporized=""/>
    <tripinfo id="bike1" depart="7.50" departLane="-49710569#2_0" departPos="1.70" departSpeed="0.00" departDelay="0.39" arrival="107.50" arrivalLane="-4395970_1" arrivalPos="48.87" arrivalSpeed="5.31" duration="100.00" routeLength="510.11" waitingTime="0.00" waitingCount="0" stopTime="0.00" timeLoss="7.49" rerouteNo="1" devices="tripinfo_bike1 routing_bike1 ssm_bike1" vType="bike_bicycle" speedFactor="0.86" vaporized=""/>
    <tripinfo id="veh5" depart="22.00" departLane="4401787_1" departPos="0.20" departSpeed="0.00" departDelay="0.11" arrival="134.00" arrivalLane="-125814598_1" arrivalPos="27.90" arrivalSpeed="7.13" duration="112.00" routeLength="471.31" waitingTime="31.00" waitingCount="3" stopTime="0.00" timeLoss="58.07" rerouteNo="1" devices="tripinfo_veh5 routing_veh5 ssm_veh5" vType="CAV4" speedFactor="0.96" vaporized=""/>
    <tripinfo id="veh7" depart="31.00" departLane="13871230#1_1" departPos="5.10" departSpeed="0.00" departDelay="0.35" arrival="142.50" arrivalLane="-39179549#0_1" arrivalPos="60.37" arrivalSpeed="7.45" duration="111.50" routeLength="782.27" waitingTime="0.00" waitingCount="0" stopTime="0.00" timeLoss="9.00" rerouteNo="1" devices="tripinfo_veh7 routing_veh7 ssm_veh7" vType="HDC" speedFactor="0.94" vaporized=""/>
    <tripinfo id="veh2" depart="9.00" departLane="-52321641#4_2" departPos="5.10" departSpeed="0.00" departDelay="0.24" arrival="143.00" arrivalLane="35078314#1_1" arrivalPos="44.77" arrivalSpeed="7.67" duration="134.00" routeLength="1309.08" waitingTime="4.50" waitingCount="1" stopTime="0.00" timeLoss="18.90" rerouteNo="1" devices="tripinfo_veh2 routing_veh2 ssm_veh2" vType="HDC" speedFactor="0.92" vaporized=""/>
    <tripinfo id="veh20" depart="88.00" departLane="147075690_2" departPos="5.10" departSpeed="0.00" departDelay="0.44" arrival="152.50" arrivalLane="-52321640#1_1" arrivalPos="6.59" arrivalSpeed="6.47" duration="64.50" routeLength="526.79" waitingTime="0.00" waitingCount="0" stopTime="0.00" timeLoss="6.78" rerouteNo="1" devices="tripinfo_veh20 routing_veh20 ssm_veh20" vType="HDC" speedFactor="0.97" vaporized=""/>
    <tripinfo id="veh21" depart="92.00" departLane="-75589201_1" departPos="5.10" departSpeed="0.00" departDelay="0.06" arrival="153.50" arrivalLane="6273612#2_1" arrivalPos="8.66" arrivalSpeed="8.26" duration="61.50" routeLength="514.09" waitingTime="0.00" waitingCount="0" stopTime="0.00" timeLoss="10.63" rerouteNo="1" devices="tripinfo_veh21 routing_veh21 ssm_veh21" vType="CAV2" speedFactor="1.01" vaporized=""/>
    <tripinfo id="veh17" depart="74.50" departLane="-35078322#1_1" departPos="5.10" departSpeed="0.00" departDelay="0.07" arrival="164.50" arrivalLane="-529166755_1" arrivalPos="0.20" arrivalSpeed="15.64" duration="90.00" routeLength="693.82" waitingTime="12.00" waitingCount="2" stopTime="0.00" timeLoss="30.34" rerouteNo="1" devices="tripinfo_veh17 routing_veh17 ssm_veh17" vType="HDC" speedFactor="1.15" vaporized=""/>
    <tripinfo id="bike21" depart="149.50" departLane="-4396159#0_1" departPos="1.70" departSpeed="0.00" departDelay="0.11" arrival="173.50" arrivalLane="-52321641#4_1" arrivalPos="19.81" arrivalSpeed="5.53" duration="24.00" routeLength="113.52" waitingTime="0.00" waitingCount="0" stopTime="0.00" timeLoss="3.12" rerouteNo="1" devices="tripinfo_bike21 routing_bike21 ssm_bike21" vType="bike_bicycle" speedFactor="0.98" vaporized=""/>
    <tripinfo id="veh0" depart="0.00" departLane="556390402#0_2" departPos="5.10" departSpeed="8.23" departDelay="0.00" arrival="175.00" arrivalLane="-35078325_1" arrivalPos="100.97" arrivalSpeed="8.23" duration="175.00" routeLength="1235.41" waitingTime="15.50" waitingCount="2" stopTime="0.00" timeLoss="43.02" rerouteNo="1" devices="tripinfo_veh0 routing_veh0 ssm_veh0" vType="CAV2" speedFactor="0.99" vaporized=""/>
    <tripinfo id="veh14" depart="61.50" departLane="52321641#1_3" departPos="5.10" departSpeed="0.00" departDelay="0.21" arrival="176.50" arrivalLane="3708838#3_1" arrivalPos="42.35" arrivalSpeed="7.96" duration="115.00" routeLength="627.37" waitingTime="37.50" waitingCount="1" stopTime="0.00" timeLoss="49.63" rerouteNo="1" devices="tripinfo_veh14 routing_veh14 ssm_veh14" vType="HDC" speedFactor="1.03" vaporized=""/>
    <tripinfo id="bike3" depart="21.50" departLane="52375079#1_1" departPos="1.70" departSpeed="0.00" departDelay="0.16" arrival="177.00" arrivalLane="-31004179#0_0" arrivalPos="8.57" arrivalSpeed="5.35" duration="155.50" routeLength="807.11" waitingTime="0.00" waitingCount="0" stopTime="0.00" timeLoss="8.95" rerouteNo="1" devices="tripinfo_bike3 routing_bike3 ssm_bike3" vType="bike_bicycle" speedFactor="0.97" vaporized=""/>
    <tripinfo id="veh18" depart="79.00" departLane="-3708465#4_1" departPos="5.10" departSpeed="0.00" departDelay="0.20" arrival="177.50" arrivalLane="-893972084_2" arrivalPos="43.22" arrivalSpeed="15.53" duration="98.50" routeLength="668.04" waitingTime="24.00" waitingCount="3" stopTime="0.00" timeLoss="47.93" rerouteNo="1" devices="tripinfo_veh18 routing_veh18 ssm_veh18" vType="HDC" speedFactor="1.12" vaporized=""/>
    <tripinfo id="moto12" depart="158.00" departLane="-35078322#2_1" departPos="2.30" departSpeed="0.00" departDelay="0.39" arrival="185.00" arrivalLane="-35078322#4_1" arrivalPos="42.37" arrivalSpeed="7.55" duration="27.00" routeLength="177.76" waitingTime="0.00" waitingCount="0" stopTime="0.00" timeLoss="3.62" rerouteNo="1" devices="tripinfo_moto12 routing_moto12 ssm_moto12" vType="moto_motorcycle" speedFactor="0.98" vaporized=""/>
    <tripinfo id="moto2" depart="26.50" departLane="39994845_1" departPos="2.30" departSpeed="0.00" departDelay="0.23" arrival="197.50" arrivalLane="3789571#0_1" arrivalPos="64.96" arrivalSpeed="9.31" duration="171.00" routeLength="1042.09" waitingTime="29.50" waitingCount="2" stopTime="0.00" timeLoss="65.19" rerouteNo="1" devices="tripinfo_moto2 routing_moto2 ssm_moto2" vType="moto_motorcycle" speedFactor="1.14" vaporized=""/>
    <tripinfo id="veh22" depart="96.50" departLane="3789368#3_1" departPos="5.10" departSpeed="0.00" departDelay="0.18" arrival="199.50" arrivalLane="37721991#0_1" arrivalPos="28.89" arrivalSpeed="7.34" duration="103.00" routeLength="813.74" waitingTime="0.00" waitingCount="0" stopTime="0.00" timeLoss="9.62" rerouteNo="1" devices="tripinfo_veh22 routing_veh22 ssm_veh22" vType="HDC" speedFactor="0.94" vaporized=""/>
    <tripinfo id="veh10" depart="44.00" departLane="4401781#3_1" departPos="5.10" departSpeed="0.00" departDelay="0.22" arrival="202.50" arrivalLane="39255348#5_1" arrivalPos="21.31" arrivalSpeed="7.93" duration="158.50" routeLength="1207.75" waitingTime="9.50" waitingCount="3" stopTime="0.00" timeLoss="47.67" rerouteNo="1" devices="tripinfo_veh10 routing_veh10 ssm_veh10" vType="HDC" speedFactor="1.03" vaporized=""/>
    <tripinfo id="tram0" depart="0.00" departLane="317127413#0_0" departPos="22.10" departSpeed="13.89" departDelay="0.00" arrival="203.50" arrivalLane="338055464#21_0" arrivalPos="379.82" arrivalSpeed="13.89" duration="203.50" routeLength="2194.08" waitingTime="27.50" waitingCount="2" stopTime="0.00" timeLoss="45.54" rerouteNo="1" devices="tripinfo_tram0 routing_tram0 ssm_tram0" vType="tram_tram" speedFactor="1.00" vaporized=""/>
    <tripinfo id="bike0" depart="0.00" departLane="3708838#3_1" departPos="1.70" departSpeed="0.00" departDelay="0.00" arrival="204.50" arrivalLane="-13871250_1" arrivalPos="98.89" arrivalSpeed="5.50" duration="204.50" routeLength="1024.68" waitingTime="7.50" waitingCount="1" stopTime="0.00" timeLoss="19.58" rerouteNo="1" devices="tripinfo_bike0 routing_bike0 ssm_bike0" vType="bike_bicycle" speedFactor="0.94" vaporized=""/>
    <tripinfo id="truck0" depart="0.00" departLane="4401781#2_1" departPos="7.20" departSpeed="0.00" departDelay="0.00" arrival="206.50" arrivalLane="-125814491#1_1" arrivalPos="25.85" arrivalSpeed="8.36" duration="206.50" routeLength="1292.52" waitingTime="36.50" waitingCount="5" stopTime="0.00" timeLoss="85.17" rerouteNo="1" devices="tripinfo_truck0 routing_truck0 ssm_truck0" vType="truck_truck" speedFactor="1.02" vaporized=""/>
    <tripinfo id="moto7" depart="92.00" departLane="3789252#1_2" departPos="2.30" departSpeed="0.00" departDelay="0.06" arrival="208.50" arrivalLane="35078321#1_1" arrivalPos="4.26" arrivalSpeed="6.97" duration="116.50" routeLength="893.58" waitingTime="18.50" waitingCount="3" stopTime="0.00" timeLoss="35.12" rerouteNo="1" devices="tripinfo_moto7 routing_moto7 ssm_moto7" vType="moto_motorcycle" speedFactor="0.89" vaporized=""/>
    <tripinfo id="veh9" depart="39.50" departLane="4908199#2_1" departPos="5.10" departSpeed="0.00" departDelay="0.10" arrival="209.50" arrivalLane="372256216#6_2" arrivalPos="20.93" arrivalSpeed="13.95" duration="170.00" routeLength="1137.81" waitingTime="37.00" waitingCount="3" stopTime="0.00" timeLoss="76.46" rerouteNo="1" devices="tripinfo_veh9 routing_veh9 ssm_veh9" vType="CAV2" speedFactor="1.01" vaporized=""/>
    <tripinfo id="veh31" depart="136.00" departLane="585819381#0_1" departPos="3.24" departSpeed="0.00" departDelay="0.28" arrival="210.50" arrivalLane="317027066#0_1" arrivalPos="37.27" arrivalSpeed="8.41" duration="74.50" routeLength="601.92" waitingTime="0.00" waitingCount="0" stopTime="0.00" timeLoss="19.93" rerouteNo="1" devices="tripinfo_veh31 routing_veh31 ssm_veh31" vType="CAV4" speedFactor="1.01" vaporized=""/>
    <tripinfo id="veh8" depart="35.50" departLane="-370381577#1_2" departPos="5.10" departSpeed="0.00" departDelay="0.48" arrival="213.00" arrivalLane="-3708463#1_1" arrivalPos="55.40" arrivalSpeed="8.49" duration="177.50" routeLength="1391.36" waitingTime="15.50" waitingCount="4" stopTime="0.00" timeLoss="48.29" rerouteNo="1" devices="tripinfo_veh8 routing_veh8 ssm_veh8" vType="HDC" speedFactor="1.08" vaporized=""/>
    <tripinfo id="bus0" depart="5.50" departLane="4401781#2_1" departPos="12.10" departSpeed="0.00" departDelay="5.50" arrival="214.00" arrivalLane="-125814491#1_1" arrivalPos="25.85" arrivalSpeed="8.06" duration="208.50" routeLength="1287.62" waitingTime="23.50" waitingCount="3" stopTime="0.00" timeLoss="85.71" rerouteNo="1" devices="tripinfo_bus0 routing_bus0 ssm_bus0" vType="bus_bus" speedFactor="1.00" vaporized=""/>
    <tripinfo id="veh23" depart="101.00" departLane="-401912432#3_2" departPos="5.10" departSpeed="0.00" departDelay="0.30" arrival="215.00" arrivalLane="14331347_1" arrivalPos="0.20" arrivalSpeed="14.83" duration="114.00" routeLength="802.84" waitingTime="18.50" waitingCount="2" stopTime="0.00" timeLoss="59.18" rerouteNo="1" devices="tripinfo_veh23 routing_veh23 ssm_veh23" vType="HDC" speedFactor="1.10" vaporized=""/>
    <tripinfo id="veh25" depart="111.50" departLane="361409608#0_1" departPos="5.10" departSpeed="0.00" departDelay="2.05" arrival="219.00" arrivalLane="3791905#1_2" arrivalPos="32.42" arrivalSpeed="8.47" duration="107.50" routeLength="1000.03" waitingTime="10.00" waitingCount="2" stopTime="0.00" timeLoss="29.43" rerouteNo="1" devices="tripinfo_veh25 routing_veh25 ssm_veh25" vType="HDC" speedFactor="1.03" vaporized=""/>
    <tripinfo id="moto11" depart="144.50" departLane="12854626#1_1" departPos="2.30" departSpeed="0.00" departDelay="0.02" arrival="221.00" arrivalLane="-3789372#5_1" arrivalPos="5.82" arrivalSpeed="7.62" duration="76.50" routeLength="644.99" waitingTime="0.00" waitingCount="0" stopTime="0.00" timeLoss="7.79" rerouteNo="1" devices="tripinfo_moto11 routing_moto11 ssm_moto11" vType="moto_motorcycle" speedFactor="1.08" vaporized=""/>
    <tripinfo id="bike13" depart="92.50" departLane="-310196058_1" departPos="1.70" departSpeed="0.00" departDelay="0.02" arrival="222.00" arrivalLane="-317027067_1" arrivalPos="44.99" arrivalSpeed="5.52" duration="129.50" routeLength="562.74" waitingTime="18.50" waitingCount="1" stopTime="0.00" timeLoss="27.96" rerouteNo="1" devices="tripinfo_bike13 routing_bike13 ssm_bike13" vType="bike_bicycle" speedFactor="1.03" vaporized=""/>
    <tripinfo id="veh27" depart="118.50" departLane="12854626#1_1" departPos="5.10" departSpeed="0.00" departDelay="0.29" arrival="222.50" arrivalLane="-75589201_1" arrivalPos="28.70" arrivalSpeed="8.56" duration="104.00" routeLength="873.24" waitingTime="0.00" waitingCount="0" stopTime="0.00" timeLoss="11.28" rerouteNo="1" devices="tripinfo_veh27 routing_veh27 ssm_veh27" vType="HDC" speedFactor="1.04" vaporized=""/>
    <tripinfo id="truck6" depart="39.50" departLane="14401069#0_1" departPos="7.20" departSpeed="7.85" departDelay="0.10" arrival="225.00" arrivalLane="-4908185_1" arrivalPos="0.20" arrivalSpeed="8.60" duration="185.50" routeLength="1190.46" waitingTime="27.00" waitingCount="3" stopTime="0.00" timeLoss="65.03" rerouteNo="1" devices="tripinfo_truck6 routing_truck6 ssm_truck6" vType="truck_truck" speedFactor="0.94" vaporized=""/>
    <tripinfo id="bike20" depart="142.50" departLane="383996050_0" departPos="1.70" departSpeed="0.00" departDelay="0.22" arrival="227.50" arrivalLane="-233075611#1_0" arrivalPos="55.29" arrivalSpeed="5.09" duration="85.00" routeLength="423.56" waitingTime="0.00" waitingCount="0" stopTime="0.00" timeLoss="5.93" rerouteNo="1" devices="tripinfo_bike20 routing_bike20 ssm_bike20" vType="bike_bicycle" speedFactor="0.96" vaporized=""/>
    <tripinfo id="truck12" depart="79.00" departLane="370381577#0_1" departPos="7.20" departSpeed="0.00" departDelay="0.20" arrival="229.50" arrivalLane="52822147#1_1" arrivalPos="31.42" arrivalSpeed="7.82" duration="150.50" routeLength="1061.31" waitingTime="20.50" waitingCount="1" stopTime="0.00" timeLoss="36.63" rerouteNo="1" devices="tripinfo_truck12 routing_truck12 ssm_truck12" vType="truck_truck" speedFactor="0.96" vaporized=""/>
    <tripinfo id="veh1" depart="4.50" departLane="25631272#0_1" departPos="5.10" departSpeed="6.91" departDelay="0.12" arrival="235.50" arrivalLane="-13871250_1" arrivalPos="98.89" arrivalSpeed="8.95" duration="231.00" routeLength="1696.37" waitingTime="32.00" waitingCount="3" stopTime="0.00" timeLoss="66.45" rerouteNo="1" devices="tripinfo_veh1 routing_veh1 ssm_veh1" vType="HDC" speedFactor="1.08" vaporized=""/>
    <tripinfo id="truck5" depart="33.00" departLane="52321640#2_1" departPos="7.20" departSpeed="0.00" departDelay="0.16" arrival="239.00" arrivalLane="3708463#2_1" arrivalPos="88.51" arrivalSpeed="13.34" duration="206.00" routeLength="1405.95" waitingTime="31.50" waitingCount="1" stopTime="0.00" timeLoss="57.80" rerouteNo="1" devices="tripinfo_truck5 routing_truck5 ssm_truck5" vType="truck_truck" speedFactor="0.97" vaporized=""/>
    <tripinfo id="bike24" depart="171.00" departLane="3708578#3_1" departPos="1.70" departSpeed="0.00" departDelay="0.27" arrival="241.00" arrivalLane="-757833288_0" arrivalPos="12.95" arrivalSpeed="5.06" duration="70.00" routeLength="307.97" waitingTime="5.50" waitingCount="1" stopTime="0.00" timeLoss="13.73" rerouteNo="1" devices="tripinfo_bike24 routing_bike24 ssm_bike24" vType="bike_bicycle" speedFactor="0.96" vaporized=""/>
    <personinfo id="ped18" depart="69.76" type="ped_pedestrian">
        <walk depart="70.00" departPos="0.00" arrival="242.50" arrivalPos="9.82" duration="172.50" routeLength="199.82" timeLoss="19.34" maxSpeed="1.30"/>
    </personinfo>
    <tripinfo id="veh19" depart="83.50" departLane="3789251#2_1" departPos="5.10" departSpeed="0.00" departDelay="0.32" arrival="243.00" arrivalLane="13907388_3" arrivalPos="130.20" arrivalSpeed="13.55" duration="159.50" routeLength="1513.81" waitingTime="4.50" waitingCount="1" stopTime="0.00" timeLoss="33.47" rerouteNo="1" devices="tripinfo_veh19 routing_veh19 ssm_veh19" vType="HDC" speedFactor="0.99" vaporized=""/>
    <tripinfo id="moto3" depart="39.50" departLane="529166754_1" departPos="0.20" departSpeed="0.00" departDelay="0.10" arrival="243.00" arrivalLane="-35078316#0_1" arrivalPos="7.57" arrivalSpeed="10.43" duration="203.50" routeLength="1604.05" waitingTime="50.50" waitingCount="5" stopTime="0.00" timeLoss="95.21" rerouteNo="1" devices="tripinfo_moto3 routing_moto3 ssm_moto3" vType="moto_motorcycle" speedFactor="1.27" vaporized=""/>
    <tripinfo id="moto18" depart="236.50" departLane="52321639#3_1" departPos="0.41" departSpeed="0.00" departDelay="0.09" arrival="250.50" arrivalLane="370381577#1_2" arrivalPos="30.94" arrivalSpeed="13.81" duration="14.00" routeLength="125.98" waitingTime="0.00" waitingCount="0" stopTime="0.00" timeLoss="2.90" rerouteNo="1" devices="tripinfo_moto18 routing_moto18 ssm_moto18" vType="moto_motorcycle" speedFactor="1.00" vaporized=""/>
    <tripinfo id="truck3" depart="20.00" departLane="4908199#0_1" departPos="7.20" departSpeed="0.00" departDelay="0.30" arrival="256.50" arrivalLane="372245388#1_1" arrivalPos="34.46" arrivalSpeed="7.97" duration="236.50" routeLength="1590.35" waitingTime="43.00" waitingCount="4" stopTime="0.00" timeLoss="81.13" rerouteNo="1" devices="tripinfo_truck3 routing_truck3 ssm_truck3" vType="truck_truck" speedFactor="0.97" vaporized=""/>
    <tripinfo id="veh32" depart="140.50" departLane="-67139161#4_1" departPos="5.10" departSpeed="0.00" departDelay="0.40" arrival="264.50" arrivalLane="-6273612#5_1" arrivalPos="11.64" arrivalSpeed="7.17" duration="124.00" routeLength="849.40" waitingTime="0.00" waitingCount="0" stopTime="0.00" timeLoss="13.91" rerouteNo="1" devices="tripinfo_veh32 routing_veh32 ssm_veh32" vType="CAV2" speedFactor="0.94" vaporized=""/>
    <tripinfo id="bike11" depart="78.50" departLane="-64270035#0_1" departPos="1.70" departSpeed="0.00" departDelay="0.25" arrival="264.50" arrivalLane="-372256216#7_1" arrivalPos="14.96" arrivalSpeed="5.32" duration="186.00" routeLength="644.51" waitingTime="55.00" waitingCount="2" stopTime="0.00" timeLoss="69.95" rerouteNo="1" devices="tripinfo_bike11 routing_bike11 ssm_bike11" vType="bike_bicycle" speedFactor="1.09" vaporized=""/>
    <tripinfo id="truck13" depart="85.50" departLane="18927706#0_1" departPos="7.20" departSpeed="8.66" departDelay="0.13" arrival="267.00" arrivalLane="-52321640#2_1" arrivalPos="23.46" arrivalSpeed="8.50" duration="181.50" routeLength="1149.41" waitingTime="38.00" waitingCount="2" stopTime="0.00" timeLoss="58.65" rerouteNo="1" devices="tripinfo_truck13 routing_truck13 ssm_truck13" vType="truck_truck" speedFactor="1.04" vaporized=""/>
    <tripinfo id="moto4" depart="53.00" departLane="242586599_1" departPos="0.22" departSpeed="0.00" departDelay="0.46" arrival="269.00" arrivalLane="-13871198#1_1" arrivalPos="64.89" arrivalSpeed="6.82" duration="216.00" routeLength="1402.75" waitingTime="49.50" waitingCount="4" stopTime="0.00" timeLoss="82.82" rerouteNo="1" devices="tripinfo_moto4 routing_moto4 ssm_moto4" vType="moto_motorcycle" speedFactor="0.98" vaporized=""/>
    <tripinfo id="veh6" depart="26.50" departLane="4401781#2_1" departPos="5.10" departSpeed="0.00" departDelay="0.23" arrival="271.00" arrivalLane="3791905#3_1" arrivalPos="124.80" arrivalSpeed="8.13" duration="244.50" routeLength="1823.47" waitingTime="48.00" waitingCount="7" stopTime="0.00" timeLoss="96.98" rerouteNo="1" devices="tripinfo_veh6 routing_veh6 ssm_veh6" vType="HDC" speedFactor="1.04" vaporized=""/>
    <personinfo id="ped41" depart="158.89" type="ped_pedestrian">
        <walk depart="159.00" departPos="0.00" arrival="272.00" arrivalPos="7.97" duration="113.00" routeLength="147.74" timeLoss="12.86" maxSpeed="1.48"/>
    </personinfo>
    <tripinfo id="bike4" depart="28.50" departLane="13871250_1" departPos="1.70" departSpeed="0.00" departDelay="0.04" arrival="276.50" arrivalLane="-14047795#4_0" arrivalPos="44.05" arrivalSpeed="5.34" duration="248.00" routeLength="1315.41" waitingTime="0.00" waitingCount="0" stopTime="0.00" timeLoss="10.72" rerouteNo="1" devices="tripinfo_bike4 routing_bike4 ssm_bike4" vType="bike_bicycle" speedFactor="1.02" vaporized=""/>
    <tripinfo id="bus5" depart="66.00" departLane="52321640#2_1" departPos="12.10" departSpeed="0.00" departDelay="0.33" arrival="278.00" arrivalLane="3708463#2_1" arrivalPos="88.51" arrivalSpeed="13.75" duration="212.00" routeLength="1401.05" waitingTime="29.00" waitingCount="3" stopTime="0.00" timeLoss="68.36" rerouteNo="1" devices="tripinfo_bus5 routing_bus5 ssm_bus5" vType="bus_bus" speedFactor="1.00" vaporized=""/>
    <tripinfo id="truck16" depart="105.50" departLane="-3708465#4_1" departPos="7.20" departSpeed="0.00" departDelay="0.43" arrival="281.00" arrivalLane="37865098#0_1" arrivalPos="89.89" arrivalSpeed="8.51" duration="175.50" routeLength="1363.05" waitingTime="27.00" waitingCount="4" stopTime="0.00" timeLoss="68.37" rerouteNo="1" devices="tripinfo_truck16 routing_truck16 ssm_truck16" vType="truck_truck" speedFactor="1.06" vaporized=""/>
    <tripinfo id="bike6" depart="43.00" departLane="-14047795#1_0" departPos="1.70" departSpeed="0.00" departDelay="0.32" arrival="281.50" arrivalLane="-401764333#1_0" arrivalPos="14.86" arrivalSpeed="5.47" duration="238.50" routeLength="1260.48" waitingTime="0.00" waitingCount="0" stopTime="0.00" timeLoss="10.34" rerouteNo="1" devices="tripinfo_bike6 routing_bike6 ssm_bike6" vType="bike_bicycle" speedFactor="1.02" vaporized=""/>
    <tripinfo id="truck17" depart="112.00" departLane="-334138114#5_1" departPos="7.20" departSpeed="0.00" departDelay="0.36" arrival="282.00" arrivalLane="14327272#0_1" arrivalPos="235.02" arrivalSpeed="7.65" duration="170.00" routeLength="1061.54" waitingTime="7.50" waitingCount="2" stopTime="0.00" timeLoss="39.05" rerouteNo="1" devices="tripinfo_truck17 routing_truck17 ssm_truck17" vType="truck_truck" speedFactor="0.95" vaporized=""/>
    <tripinfo id="veh33" depart="144.50" departLane="361409608#3_1" departPos="5.10" departSpeed="0.00" departDelay="0.02" arrival="284.00" arrivalLane="-64270141_1" arrivalPos="25.41" arrivalSpeed="8.51" duration="139.50" routeLength="865.62" waitingTime="52.00" waitingCount="2" stopTime="0.00" timeLoss="74.33" rerouteNo="1" devices="tripinfo_veh33 routing_veh33 ssm_veh33" vType="HDC" speedFactor="1.06" vaporized=""/>
    <tripinfo id="veh24" depart="105.50" departLane="913681361_1" departPos="5.10" departSpeed="0.00" departDelay="0.43" arrival="285.50" arrivalLane="3789252#2_2" arrivalPos="37.46" arrivalSpeed="12.69" duration="180.00" routeLength="1092.12" waitingTime="38.00" waitingCount="4" stopTime="0.00" timeLoss="66.60" rerouteNo="1" devices="tripinfo_veh24 routing_veh24 ssm_veh24" vType="CAV4" speedFactor="0.92" vaporized=""/>
    <tripinfo id="moto6" depart="79.00" departLane="-135582944_1" departPos="2.30" departSpeed="0.00" departDelay="0.20" arrival="286.50" arrivalLane="-4396159#1_3" arrivalPos="12.70" arrivalSpeed="10.97" duration="207.50" routeLength="1271.90" waitingTime="50.50" waitingCount="6" stopTime="0.00" timeLoss="89.55" rerouteNo="1" devices="tripinfo_moto6 routing_moto6 ssm_moto6" vType="moto_motorcycle" speedFactor="1.14" vaporized=""/>
    <tripinfo id="veh35" depart="153.50" departLane="24231262_1" departPos="5.10" departSpeed="0.00" departDelay="0.27" arrival="289.50" arrivalLane="-52321641#4_3" arrivalPos="19.81" arrivalSpeed="9.64" duration="136.00" routeLength="949.33" waitingTime="20.50" waitingCount="5" stopTime="0.00" timeLoss="51.17" rerouteNo="1" devices="tripinfo_veh35 routing_veh35 ssm_veh35" vType="HDC" speedFactor="1.05" vaporized=""/>
    <tripinfo id="bike17" depart="121.00" departLane="-94838278#1_1" departPos="1.70" departSpeed="0.00" departDelay="0.06" arrival="293.00" arrivalLane="317127411_1" arrivalPos="31.65" arrivalSpeed="5.34" duration="172.00" routeLength="817.21" waitingTime="2.50" waitingCount="1" stopTime="0.00" timeLoss="24.25" rerouteNo="1" devices="tripinfo_bike17 routing_bike17 ssm_bike17" vType="bike_bicycle" speedFactor="0.96" vaporized=""/>
    <tripinfo id="truck11" depart="72.50" departLane="585819383#1_2" departPos="3.24" departSpeed="0.00" departDelay="0.26" arrival="294.00" arrivalLane="31004181#4_1" arrivalPos="39.16" arrivalSpeed="8.64" duration="221.50" routeLength="1020.74" waitingTime="80.50" waitingCount="2" stopTime="0.00" timeLoss="111.31" rerouteNo="1" devices="tripinfo_truck11 routing_truck11 ssm_truck11" vType="truck_truck" speedFactor="1.06" vaporized=""/>
    <tripinfo id="bus6" depart="79.00" departLane="14401069#0_1" departPos="12.10" departSpeed="8.33" departDelay="0.20" arrival="294.00" arrivalLane="-4908185_1" arrivalPos="0.20" arrivalSpeed="8.61" duration="215.00" routeLength="1185.56" waitingTime="49.00" waitingCount="6" stopTime="0.00" timeLoss="101.68" rerouteNo="1" devices="tripinfo_bus6 routing_bus6 ssm_bus6" vType="bus_bus" speedFactor="1.00" vaporized=""/>
    <tripinfo id="bike9" depart="66.50" departLane="4401781#3_1" departPos="1.70" departSpeed="0.00" departDelay="2.47" arrival="297.50" arrivalLane="-125814738#1_1" arrivalPos="61.54" arrivalSpeed="5.37" duration="231.00" routeLength="907.89" waitingTime="42.00" waitingCount="4" stopTime="0.00" timeLoss="66.67" rerouteNo="1" devices="tripinfo_bike9 routing_bike9 ssm_bike9" vType="bike_bicycle" speedFactor="0.97" vaporized=""/>
    <tripinfo id="truck10" depart="66.00" departLane="52321644#2_1" departPos="6.98" departSpeed="0.00" departDelay="0.33" arrival="298.50" arrivalLane="125814738#2_1" arrivalPos="28.29" arrivalSpeed="13.04" duration="232.50" routeLength="1077.03" waitingTime="66.50" waitingCount="5" stopTime="0.00" timeLoss="111.55" rerouteNo="1" devices="tripinfo_truck10 routing_truck10 ssm_truck10" vType="truck_truck" speedFactor="0.96" vaporized=""/>
    <tripinfo id="truck28" depart="184.00" departLane="-59172069#2_1" departPos="7.20" departSpeed="0.00" departDelay="0.12" arrival="303.50" arrivalLane="3789374#0_1" arrivalPos="49.65" arrivalSpeed="7.94" duration="119.50" routeLength="812.69" waitingTime="13.50" waitingCount="2" stopTime="0.00" timeLoss="49.84" rerouteNo="1" devices="tripinfo_truck28 routing_truck28 ssm_truck28" vType="truck_truck" speedFactor="0.98" vaporized=""/>